+ 0.5 0 1 cbr 500 ------- 0 0.0 1.0 0 0
- 0.5 0 1 cbr 500 ------- 0 0.0 1.0 0 0
+ 0.505 0 1 cbr 500 ------- 0 0.0 1.0 1 1
- 0.505 0 1 cbr 500 ------- 0 0.0 1.0 1 1
+ 0.51 0 1 cbr 500 ------- 0 0.0 1.0 2 2
- 0.51 0 1 cbr 500 ------- 0 0.0 1.0 2 2
+ 0.515 0 1 cbr 500 ------- 0 0.0 1.0 3 3
- 0.515 0 1 cbr 500 ------- 0 0.0 1.0 3 3
+ 0.52 0 1 cbr 500 ------- 0 0.0 1.0 4 4
- 0.52 0 1 cbr 500 ------- 0 0.0 1.0 4 4
r 0.522 0 1 cbr 500 ------- 0 0.0 1.0 0 0
+ 0.525 0 1 cbr 500 ------- 0 0.0 1.0 5 5
- 0.525 0 1 cbr 500 ------- 0 0.0 1.0 5 5
r 0.527 0 1 cbr 500 ------- 0 0.0 1.0 1 1
+ 0.53 0 1 cbr 500 ------- 0 0.0 1.0 6 6
- 0.53 0 1 cbr 500 ------- 0 0.0 1.0 6 6
r 0.532 0 1 cbr 500 ------- 0 0.0 1.0 2 2
+ 0.535 0 1 cbr 500 ------- 0 0.0 1.0 7 7
- 0.535 0 1 cbr 500 ------- 0 0.0 1.0 7 7
r 0.537 0 1 cbr 500 ------- 0 0.0 1.0 3 3
+ 0.54 0 1 cbr 500 ------- 0 0.0 1.0 8 8
- 0.54 0 1 cbr 500 ------- 0 0.0 1.0 8 8
r 0.542 0 1 cbr 500 ------- 0 0.0 1.0 4 4
+ 0.545 0 1 cbr 500 ------- 0 0.0 1.0 9 9
- 0.545 0 1 cbr 500 ------- 0 0.0 1.0 9 9
r 0.547 0 1 cbr 500 ------- 0 0.0 1.0 5 5
+ 0.55 0 1 cbr 500 ------- 0 0.0 1.0 10 10
- 0.55 0 1 cbr 500 ------- 0 0.0 1.0 10 10
r 0.552 0 1 cbr 500 ------- 0 0.0 1.0 6 6
+ 0.555 0 1 cbr 500 ------- 0 0.0 1.0 11 11
- 0.555 0 1 cbr 500 ------- 0 0.0 1.0 11 11
r 0.557 0 1 cbr 500 ------- 0 0.0 1.0 7 7
+ 0.56 0 1 cbr 500 ------- 0 0.0 1.0 12 12
- 0.56 0 1 cbr 500 ------- 0 0.0 1.0 12 12
r 0.562 0 1 cbr 500 ------- 0 0.0 1.0 8 8
+ 0.565 0 1 cbr 500 ------- 0 0.0 1.0 13 13
- 0.565 0 1 cbr 500 ------- 0 0.0 1.0 13 13
r 0.567 0 1 cbr 500 ------- 0 0.0 1.0 9 9
+ 0.57 0 1 cbr 500 ------- 0 0.0 1.0 14 14
- 0.57 0 1 cbr 500 ------- 0 0.0 1.0 14 14
r 0.572 0 1 cbr 500 ------- 0 0.0 1.0 10 10
+ 0.575 0 1 cbr 500 ------- 0 0.0 1.0 15 15
- 0.575 0 1 cbr 500 ------- 0 0.0 1.0 15 15
r 0.577 0 1 cbr 500 ------- 0 0.0 1.0 11 11
+ 0.58 0 1 cbr 500 ------- 0 0.0 1.0 16 16
- 0.58 0 1 cbr 500 ------- 0 0.0 1.0 16 16
r 0.582 0 1 cbr 500 ------- 0 0.0 1.0 12 12
+ 0.585 0 1 cbr 500 ------- 0 0.0 1.0 17 17
- 0.585 0 1 cbr 500 ------- 0 0.0 1.0 17 17
r 0.587 0 1 cbr 500 ------- 0 0.0 1.0 13 13
+ 0.59 0 1 cbr 500 ------- 0 0.0 1.0 18 18
- 0.59 0 1 cbr 500 ------- 0 0.0 1.0 18 18
r 0.592 0 1 cbr 500 ------- 0 0.0 1.0 14 14
+ 0.595 0 1 cbr 500 ------- 0 0.0 1.0 19 19
- 0.595 0 1 cbr 500 ------- 0 0.0 1.0 19 19
r 0.597 0 1 cbr 500 ------- 0 0.0 1.0 15 15
+ 0.6 0 1 cbr 500 ------- 0 0.0 1.0 20 20
- 0.6 0 1 cbr 500 ------- 0 0.0 1.0 20 20
r 0.602 0 1 cbr 500 ------- 0 0.0 1.0 16 16
+ 0.605 0 1 cbr 500 ------- 0 0.0 1.0 21 21
- 0.605 0 1 cbr 500 ------- 0 0.0 1.0 21 21
r 0.607 0 1 cbr 500 ------- 0 0.0 1.0 17 17
+ 0.61 0 1 cbr 500 ------- 0 0.0 1.0 22 22
- 0.61 0 1 cbr 500 ------- 0 0.0 1.0 22 22
r 0.612 0 1 cbr 500 ------- 0 0.0 1.0 18 18
+ 0.615 0 1 cbr 500 ------- 0 0.0 1.0 23 23
- 0.615 0 1 cbr 500 ------- 0 0.0 1.0 23 23
r 0.617 0 1 cbr 500 ------- 0 0.0 1.0 19 19
+ 0.62 0 1 cbr 500 ------- 0 0.0 1.0 24 24
- 0.62 0 1 cbr 500 ------- 0 0.0 1.0 24 24
r 0.622 0 1 cbr 500 ------- 0 0.0 1.0 20 20
+ 0.625 0 1 cbr 500 ------- 0 0.0 1.0 25 25
- 0.625 0 1 cbr 500 ------- 0 0.0 1.0 25 25
r 0.627 0 1 cbr 500 ------- 0 0.0 1.0 21 21
+ 0.63 0 1 cbr 500 ------- 0 0.0 1.0 26 26
- 0.63 0 1 cbr 500 ------- 0 0.0 1.0 26 26
r 0.632 0 1 cbr 500 ------- 0 0.0 1.0 22 22
+ 0.635 0 1 cbr 500 ------- 0 0.0 1.0 27 27
- 0.635 0 1 cbr 500 ------- 0 0.0 1.0 27 27
r 0.637 0 1 cbr 500 ------- 0 0.0 1.0 23 23
+ 0.64 0 1 cbr 500 ------- 0 0.0 1.0 28 28
- 0.64 0 1 cbr 500 ------- 0 0.0 1.0 28 28
r 0.642 0 1 cbr 500 ------- 0 0.0 1.0 24 24
+ 0.645 0 1 cbr 500 ------- 0 0.0 1.0 29 29
- 0.645 0 1 cbr 500 ------- 0 0.0 1.0 29 29
r 0.647 0 1 cbr 500 ------- 0 0.0 1.0 25 25
+ 0.65 0 1 cbr 500 ------- 0 0.0 1.0 30 30
- 0.65 0 1 cbr 500 ------- 0 0.0 1.0 30 30
r 0.652 0 1 cbr 500 ------- 0 0.0 1.0 26 26
+ 0.655 0 1 cbr 500 ------- 0 0.0 1.0 31 31
- 0.655 0 1 cbr 500 ------- 0 0.0 1.0 31 31
r 0.657 0 1 cbr 500 ------- 0 0.0 1.0 27 27
+ 0.66 0 1 cbr 500 ------- 0 0.0 1.0 32 32
- 0.66 0 1 cbr 500 ------- 0 0.0 1.0 32 32
r 0.662 0 1 cbr 500 ------- 0 0.0 1.0 28 28
+ 0.665 0 1 cbr 500 ------- 0 0.0 1.0 33 33
- 0.665 0 1 cbr 500 ------- 0 0.0 1.0 33 33
r 0.667 0 1 cbr 500 ------- 0 0.0 1.0 29 29
+ 0.67 0 1 cbr 500 ------- 0 0.0 1.0 34 34
- 0.67 0 1 cbr 500 ------- 0 0.0 1.0 34 34
r 0.672 0 1 cbr 500 ------- 0 0.0 1.0 30 30
+ 0.675 0 1 cbr 500 ------- 0 0.0 1.0 35 35
- 0.675 0 1 cbr 500 ------- 0 0.0 1.0 35 35
r 0.677 0 1 cbr 500 ------- 0 0.0 1.0 31 31
+ 0.68 0 1 cbr 500 ------- 0 0.0 1.0 36 36
- 0.68 0 1 cbr 500 ------- 0 0.0 1.0 36 36
r 0.682 0 1 cbr 500 ------- 0 0.0 1.0 32 32
+ 0.685 0 1 cbr 500 ------- 0 0.0 1.0 37 37
- 0.685 0 1 cbr 500 ------- 0 0.0 1.0 37 37
r 0.687 0 1 cbr 500 ------- 0 0.0 1.0 33 33
+ 0.69 0 1 cbr 500 ------- 0 0.0 1.0 38 38
- 0.69 0 1 cbr 500 ------- 0 0.0 1.0 38 38
r 0.692 0 1 cbr 500 ------- 0 0.0 1.0 34 34
+ 0.695 0 1 cbr 500 ------- 0 0.0 1.0 39 39
- 0.695 0 1 cbr 500 ------- 0 0.0 1.0 39 39
r 0.697 0 1 cbr 500 ------- 0 0.0 1.0 35 35
+ 0.7 2 3 cbr 210 ------- 0 2.0 3.0 0 40
- 0.7 2 3 cbr 210 ------- 0 2.0 3.0 0 40
+ 0.7 0 1 cbr 500 ------- 0 0.0 1.0 40 41
- 0.7 0 1 cbr 500 ------- 0 0.0 1.0 40 41
r 0.702 0 1 cbr 500 ------- 0 0.0 1.0 36 36
+ 0.70375 2 3 cbr 210 ------- 0 2.0 3.0 1 42
- 0.70375 2 3 cbr 210 ------- 0 2.0 3.0 1 42
+ 0.705 0 1 cbr 500 ------- 0 0.0 1.0 41 43
- 0.705 0 1 cbr 500 ------- 0 0.0 1.0 41 43
r 0.707 0 1 cbr 500 ------- 0 0.0 1.0 37 37
+ 0.7075 2 3 cbr 210 ------- 0 2.0 3.0 2 44
- 0.7075 2 3 cbr 210 ------- 0 2.0 3.0 2 44
+ 0.71 0 1 cbr 500 ------- 0 0.0 1.0 42 45
- 0.71 0 1 cbr 500 ------- 0 0.0 1.0 42 45
+ 0.71125 2 3 cbr 210 ------- 0 2.0 3.0 3 46
- 0.71125 2 3 cbr 210 ------- 0 2.0 3.0 3 46
r 0.71168 2 3 cbr 210 ------- 0 2.0 3.0 0 40
r 0.712 0 1 cbr 500 ------- 0 0.0 1.0 38 38
+ 0.715 2 3 cbr 210 ------- 0 2.0 3.0 4 47
- 0.715 2 3 cbr 210 ------- 0 2.0 3.0 4 47
+ 0.715 0 1 cbr 500 ------- 0 0.0 1.0 43 48
- 0.715 0 1 cbr 500 ------- 0 0.0 1.0 43 48
r 0.71543 2 3 cbr 210 ------- 0 2.0 3.0 1 42
r 0.717 0 1 cbr 500 ------- 0 0.0 1.0 39 39
+ 0.71875 2 3 cbr 210 ------- 0 2.0 3.0 5 49
- 0.71875 2 3 cbr 210 ------- 0 2.0 3.0 5 49
r 0.71918 2 3 cbr 210 ------- 0 2.0 3.0 2 44
+ 0.72 0 1 cbr 500 ------- 0 0.0 1.0 44 50
- 0.72 0 1 cbr 500 ------- 0 0.0 1.0 44 50
r 0.722 0 1 cbr 500 ------- 0 0.0 1.0 40 41
+ 0.7225 2 3 cbr 210 ------- 0 2.0 3.0 6 51
- 0.7225 2 3 cbr 210 ------- 0 2.0 3.0 6 51
r 0.72293 2 3 cbr 210 ------- 0 2.0 3.0 3 46
+ 0.725 0 1 cbr 500 ------- 0 0.0 1.0 45 52
- 0.725 0 1 cbr 500 ------- 0 0.0 1.0 45 52
+ 0.72625 2 3 cbr 210 ------- 0 2.0 3.0 7 53
- 0.72625 2 3 cbr 210 ------- 0 2.0 3.0 7 53
r 0.72668 2 3 cbr 210 ------- 0 2.0 3.0 4 47
r 0.727 0 1 cbr 500 ------- 0 0.0 1.0 41 43
+ 0.73 0 1 cbr 500 ------- 0 0.0 1.0 46 54
- 0.73 0 1 cbr 500 ------- 0 0.0 1.0 46 54
+ 0.73 2 3 cbr 210 ------- 0 2.0 3.0 8 55
- 0.73 2 3 cbr 210 ------- 0 2.0 3.0 8 55
r 0.73043 2 3 cbr 210 ------- 0 2.0 3.0 5 49
r 0.732 0 1 cbr 500 ------- 0 0.0 1.0 42 45
+ 0.73375 2 3 cbr 210 ------- 0 2.0 3.0 9 56
- 0.73375 2 3 cbr 210 ------- 0 2.0 3.0 9 56
r 0.73418 2 3 cbr 210 ------- 0 2.0 3.0 6 51
+ 0.735 0 1 cbr 500 ------- 0 0.0 1.0 47 57
- 0.735 0 1 cbr 500 ------- 0 0.0 1.0 47 57
r 0.737 0 1 cbr 500 ------- 0 0.0 1.0 43 48
+ 0.7375 2 3 cbr 210 ------- 0 2.0 3.0 10 58
- 0.7375 2 3 cbr 210 ------- 0 2.0 3.0 10 58
r 0.73793 2 3 cbr 210 ------- 0 2.0 3.0 7 53
+ 0.74 0 1 cbr 500 ------- 0 0.0 1.0 48 59
- 0.74 0 1 cbr 500 ------- 0 0.0 1.0 48 59
+ 0.74125 2 3 cbr 210 ------- 0 2.0 3.0 11 60
- 0.74125 2 3 cbr 210 ------- 0 2.0 3.0 11 60
r 0.74168 2 3 cbr 210 ------- 0 2.0 3.0 8 55
r 0.742 0 1 cbr 500 ------- 0 0.0 1.0 44 50
+ 0.745 0 1 cbr 500 ------- 0 0.0 1.0 49 61
- 0.745 0 1 cbr 500 ------- 0 0.0 1.0 49 61
+ 0.745 2 3 cbr 210 ------- 0 2.0 3.0 12 62
- 0.745 2 3 cbr 210 ------- 0 2.0 3.0 12 62
r 0.74543 2 3 cbr 210 ------- 0 2.0 3.0 9 56
r 0.747 0 1 cbr 500 ------- 0 0.0 1.0 45 52
+ 0.74875 2 3 cbr 210 ------- 0 2.0 3.0 13 63
- 0.74875 2 3 cbr 210 ------- 0 2.0 3.0 13 63
r 0.74918 2 3 cbr 210 ------- 0 2.0 3.0 10 58
+ 0.75 0 1 cbr 500 ------- 0 0.0 1.0 50 64
- 0.75 0 1 cbr 500 ------- 0 0.0 1.0 50 64
r 0.752 0 1 cbr 500 ------- 0 0.0 1.0 46 54
+ 0.7525 2 3 cbr 210 ------- 0 2.0 3.0 14 65
- 0.7525 2 3 cbr 210 ------- 0 2.0 3.0 14 65
r 0.75293 2 3 cbr 210 ------- 0 2.0 3.0 11 60
+ 0.755 0 1 cbr 500 ------- 0 0.0 1.0 51 66
- 0.755 0 1 cbr 500 ------- 0 0.0 1.0 51 66
+ 0.75625 2 3 cbr 210 ------- 0 2.0 3.0 15 67
- 0.75625 2 3 cbr 210 ------- 0 2.0 3.0 15 67
r 0.75668 2 3 cbr 210 ------- 0 2.0 3.0 12 62
r 0.757 0 1 cbr 500 ------- 0 0.0 1.0 47 57
+ 0.76 0 1 cbr 500 ------- 0 0.0 1.0 52 68
- 0.76 0 1 cbr 500 ------- 0 0.0 1.0 52 68
+ 0.76 2 3 cbr 210 ------- 0 2.0 3.0 16 69
- 0.76 2 3 cbr 210 ------- 0 2.0 3.0 16 69
r 0.76043 2 3 cbr 210 ------- 0 2.0 3.0 13 63
r 0.762 0 1 cbr 500 ------- 0 0.0 1.0 48 59
+ 0.76375 2 3 cbr 210 ------- 0 2.0 3.0 17 70
- 0.76375 2 3 cbr 210 ------- 0 2.0 3.0 17 70
r 0.76418 2 3 cbr 210 ------- 0 2.0 3.0 14 65
+ 0.765 0 1 cbr 500 ------- 0 0.0 1.0 53 71
- 0.765 0 1 cbr 500 ------- 0 0.0 1.0 53 71
r 0.767 0 1 cbr 500 ------- 0 0.0 1.0 49 61
+ 0.7675 2 3 cbr 210 ------- 0 2.0 3.0 18 72
- 0.7675 2 3 cbr 210 ------- 0 2.0 3.0 18 72
r 0.76793 2 3 cbr 210 ------- 0 2.0 3.0 15 67
+ 0.77 0 1 cbr 500 ------- 0 0.0 1.0 54 73
- 0.77 0 1 cbr 500 ------- 0 0.0 1.0 54 73
+ 0.77125 2 3 cbr 210 ------- 0 2.0 3.0 19 74
- 0.77125 2 3 cbr 210 ------- 0 2.0 3.0 19 74
r 0.77168 2 3 cbr 210 ------- 0 2.0 3.0 16 69
r 0.772 0 1 cbr 500 ------- 0 0.0 1.0 50 64
+ 0.775 0 1 cbr 500 ------- 0 0.0 1.0 55 75
- 0.775 0 1 cbr 500 ------- 0 0.0 1.0 55 75
+ 0.775 2 3 cbr 210 ------- 0 2.0 3.0 20 76
- 0.775 2 3 cbr 210 ------- 0 2.0 3.0 20 76
r 0.77543 2 3 cbr 210 ------- 0 2.0 3.0 17 70
r 0.777 0 1 cbr 500 ------- 0 0.0 1.0 51 66
+ 0.77875 2 3 cbr 210 ------- 0 2.0 3.0 21 77
- 0.77875 2 3 cbr 210 ------- 0 2.0 3.0 21 77
r 0.77918 2 3 cbr 210 ------- 0 2.0 3.0 18 72
+ 0.78 0 1 cbr 500 ------- 0 0.0 1.0 56 78
- 0.78 0 1 cbr 500 ------- 0 0.0 1.0 56 78
r 0.782 0 1 cbr 500 ------- 0 0.0 1.0 52 68
+ 0.7825 2 3 cbr 210 ------- 0 2.0 3.0 22 79
- 0.7825 2 3 cbr 210 ------- 0 2.0 3.0 22 79
r 0.78293 2 3 cbr 210 ------- 0 2.0 3.0 19 74
+ 0.785 0 1 cbr 500 ------- 0 0.0 1.0 57 80
- 0.785 0 1 cbr 500 ------- 0 0.0 1.0 57 80
+ 0.78625 2 3 cbr 210 ------- 0 2.0 3.0 23 81
- 0.78625 2 3 cbr 210 ------- 0 2.0 3.0 23 81
r 0.78668 2 3 cbr 210 ------- 0 2.0 3.0 20 76
r 0.787 0 1 cbr 500 ------- 0 0.0 1.0 53 71
+ 0.79 0 1 cbr 500 ------- 0 0.0 1.0 58 82
- 0.79 0 1 cbr 500 ------- 0 0.0 1.0 58 82
+ 0.79 2 3 cbr 210 ------- 0 2.0 3.0 24 83
- 0.79 2 3 cbr 210 ------- 0 2.0 3.0 24 83
r 0.79043 2 3 cbr 210 ------- 0 2.0 3.0 21 77
r 0.792 0 1 cbr 500 ------- 0 0.0 1.0 54 73
+ 0.79375 2 3 cbr 210 ------- 0 2.0 3.0 25 84
- 0.79375 2 3 cbr 210 ------- 0 2.0 3.0 25 84
r 0.79418 2 3 cbr 210 ------- 0 2.0 3.0 22 79
+ 0.795 0 1 cbr 500 ------- 0 0.0 1.0 59 85
- 0.795 0 1 cbr 500 ------- 0 0.0 1.0 59 85
r 0.797 0 1 cbr 500 ------- 0 0.0 1.0 55 75
+ 0.7975 2 3 cbr 210 ------- 0 2.0 3.0 26 86
- 0.7975 2 3 cbr 210 ------- 0 2.0 3.0 26 86
r 0.79793 2 3 cbr 210 ------- 0 2.0 3.0 23 81
+ 0.8 0 1 cbr 500 ------- 0 0.0 1.0 60 87
- 0.8 0 1 cbr 500 ------- 0 0.0 1.0 60 87
+ 0.80125 2 3 cbr 210 ------- 0 2.0 3.0 27 88
- 0.80125 2 3 cbr 210 ------- 0 2.0 3.0 27 88
r 0.80168 2 3 cbr 210 ------- 0 2.0 3.0 24 83
r 0.802 0 1 cbr 500 ------- 0 0.0 1.0 56 78
+ 0.805 0 1 cbr 500 ------- 0 0.0 1.0 61 89
- 0.805 0 1 cbr 500 ------- 0 0.0 1.0 61 89
+ 0.805 2 3 cbr 210 ------- 0 2.0 3.0 28 90
- 0.805 2 3 cbr 210 ------- 0 2.0 3.0 28 90
r 0.80543 2 3 cbr 210 ------- 0 2.0 3.0 25 84
r 0.807 0 1 cbr 500 ------- 0 0.0 1.0 57 80
+ 0.80875 2 3 cbr 210 ------- 0 2.0 3.0 29 91
- 0.80875 2 3 cbr 210 ------- 0 2.0 3.0 29 91
r 0.80918 2 3 cbr 210 ------- 0 2.0 3.0 26 86
+ 0.81 0 1 cbr 500 ------- 0 0.0 1.0 62 92
- 0.81 0 1 cbr 500 ------- 0 0.0 1.0 62 92
r 0.812 0 1 cbr 500 ------- 0 0.0 1.0 58 82
+ 0.8125 2 3 cbr 210 ------- 0 2.0 3.0 30 93
- 0.8125 2 3 cbr 210 ------- 0 2.0 3.0 30 93
r 0.81293 2 3 cbr 210 ------- 0 2.0 3.0 27 88
+ 0.815 0 1 cbr 500 ------- 0 0.0 1.0 63 94
- 0.815 0 1 cbr 500 ------- 0 0.0 1.0 63 94
+ 0.81625 2 3 cbr 210 ------- 0 2.0 3.0 31 95
- 0.81625 2 3 cbr 210 ------- 0 2.0 3.0 31 95
r 0.81668 2 3 cbr 210 ------- 0 2.0 3.0 28 90
r 0.817 0 1 cbr 500 ------- 0 0.0 1.0 59 85
+ 0.82 0 1 cbr 500 ------- 0 0.0 1.0 64 96
- 0.82 0 1 cbr 500 ------- 0 0.0 1.0 64 96
+ 0.82 2 3 cbr 210 ------- 0 2.0 3.0 32 97
- 0.82 2 3 cbr 210 ------- 0 2.0 3.0 32 97
r 0.82043 2 3 cbr 210 ------- 0 2.0 3.0 29 91
r 0.822 0 1 cbr 500 ------- 0 0.0 1.0 60 87
+ 0.82375 2 3 cbr 210 ------- 0 2.0 3.0 33 98
- 0.82375 2 3 cbr 210 ------- 0 2.0 3.0 33 98
r 0.82418 2 3 cbr 210 ------- 0 2.0 3.0 30 93
+ 0.825 0 1 cbr 500 ------- 0 0.0 1.0 65 99
- 0.825 0 1 cbr 500 ------- 0 0.0 1.0 65 99
r 0.827 0 1 cbr 500 ------- 0 0.0 1.0 61 89
+ 0.8275 2 3 cbr 210 ------- 0 2.0 3.0 34 100
- 0.8275 2 3 cbr 210 ------- 0 2.0 3.0 34 100
r 0.82793 2 3 cbr 210 ------- 0 2.0 3.0 31 95
+ 0.83 0 1 cbr 500 ------- 0 0.0 1.0 66 101
- 0.83 0 1 cbr 500 ------- 0 0.0 1.0 66 101
+ 0.83125 2 3 cbr 210 ------- 0 2.0 3.0 35 102
- 0.83125 2 3 cbr 210 ------- 0 2.0 3.0 35 102
r 0.83168 2 3 cbr 210 ------- 0 2.0 3.0 32 97
r 0.832 0 1 cbr 500 ------- 0 0.0 1.0 62 92
+ 0.835 0 1 cbr 500 ------- 0 0.0 1.0 67 103
- 0.835 0 1 cbr 500 ------- 0 0.0 1.0 67 103
+ 0.835 2 3 cbr 210 ------- 0 2.0 3.0 36 104
- 0.835 2 3 cbr 210 ------- 0 2.0 3.0 36 104
r 0.83543 2 3 cbr 210 ------- 0 2.0 3.0 33 98
r 0.837 0 1 cbr 500 ------- 0 0.0 1.0 63 94
+ 0.83875 2 3 cbr 210 ------- 0 2.0 3.0 37 105
- 0.83875 2 3 cbr 210 ------- 0 2.0 3.0 37 105
r 0.83918 2 3 cbr 210 ------- 0 2.0 3.0 34 100
+ 0.84 0 1 cbr 500 ------- 0 0.0 1.0 68 106
- 0.84 0 1 cbr 500 ------- 0 0.0 1.0 68 106
r 0.842 0 1 cbr 500 ------- 0 0.0 1.0 64 96
+ 0.8425 2 3 cbr 210 ------- 0 2.0 3.0 38 107
- 0.8425 2 3 cbr 210 ------- 0 2.0 3.0 38 107
r 0.84293 2 3 cbr 210 ------- 0 2.0 3.0 35 102
+ 0.845 0 1 cbr 500 ------- 0 0.0 1.0 69 108
- 0.845 0 1 cbr 500 ------- 0 0.0 1.0 69 108
+ 0.84625 2 3 cbr 210 ------- 0 2.0 3.0 39 109
- 0.84625 2 3 cbr 210 ------- 0 2.0 3.0 39 109
r 0.84668 2 3 cbr 210 ------- 0 2.0 3.0 36 104
r 0.847 0 1 cbr 500 ------- 0 0.0 1.0 65 99
+ 0.85 0 1 cbr 500 ------- 0 0.0 1.0 70 110
- 0.85 0 1 cbr 500 ------- 0 0.0 1.0 70 110
+ 0.85 2 3 cbr 210 ------- 0 2.0 3.0 40 111
- 0.85 2 3 cbr 210 ------- 0 2.0 3.0 40 111
r 0.85043 2 3 cbr 210 ------- 0 2.0 3.0 37 105
r 0.852 0 1 cbr 500 ------- 0 0.0 1.0 66 101
+ 0.85375 2 3 cbr 210 ------- 0 2.0 3.0 41 112
- 0.85375 2 3 cbr 210 ------- 0 2.0 3.0 41 112
r 0.85418 2 3 cbr 210 ------- 0 2.0 3.0 38 107
+ 0.855 0 1 cbr 500 ------- 0 0.0 1.0 71 113
- 0.855 0 1 cbr 500 ------- 0 0.0 1.0 71 113
r 0.857 0 1 cbr 500 ------- 0 0.0 1.0 67 103
+ 0.8575 2 3 cbr 210 ------- 0 2.0 3.0 42 114
- 0.8575 2 3 cbr 210 ------- 0 2.0 3.0 42 114
r 0.85793 2 3 cbr 210 ------- 0 2.0 3.0 39 109
+ 0.86 0 1 cbr 500 ------- 0 0.0 1.0 72 115
- 0.86 0 1 cbr 500 ------- 0 0.0 1.0 72 115
+ 0.86125 2 3 cbr 210 ------- 0 2.0 3.0 43 116
- 0.86125 2 3 cbr 210 ------- 0 2.0 3.0 43 116
r 0.86168 2 3 cbr 210 ------- 0 2.0 3.0 40 111
r 0.862 0 1 cbr 500 ------- 0 0.0 1.0 68 106
+ 0.865 0 1 cbr 500 ------- 0 0.0 1.0 73 117
- 0.865 0 1 cbr 500 ------- 0 0.0 1.0 73 117
+ 0.865 2 3 cbr 210 ------- 0 2.0 3.0 44 118
- 0.865 2 3 cbr 210 ------- 0 2.0 3.0 44 118
r 0.86543 2 3 cbr 210 ------- 0 2.0 3.0 41 112
r 0.867 0 1 cbr 500 ------- 0 0.0 1.0 69 108
+ 0.86875 2 3 cbr 210 ------- 0 2.0 3.0 45 119
- 0.86875 2 3 cbr 210 ------- 0 2.0 3.0 45 119
r 0.86918 2 3 cbr 210 ------- 0 2.0 3.0 42 114
+ 0.87 0 1 cbr 500 ------- 0 0.0 1.0 74 120
- 0.87 0 1 cbr 500 ------- 0 0.0 1.0 74 120
r 0.872 0 1 cbr 500 ------- 0 0.0 1.0 70 110
+ 0.8725 2 3 cbr 210 ------- 0 2.0 3.0 46 121
- 0.8725 2 3 cbr 210 ------- 0 2.0 3.0 46 121
r 0.87293 2 3 cbr 210 ------- 0 2.0 3.0 43 116
+ 0.875 0 1 cbr 500 ------- 0 0.0 1.0 75 122
- 0.875 0 1 cbr 500 ------- 0 0.0 1.0 75 122
+ 0.87625 2 3 cbr 210 ------- 0 2.0 3.0 47 123
- 0.87625 2 3 cbr 210 ------- 0 2.0 3.0 47 123
r 0.87668 2 3 cbr 210 ------- 0 2.0 3.0 44 118
r 0.877 0 1 cbr 500 ------- 0 0.0 1.0 71 113
+ 0.88 0 1 cbr 500 ------- 0 0.0 1.0 76 124
- 0.88 0 1 cbr 500 ------- 0 0.0 1.0 76 124
+ 0.88 2 3 cbr 210 ------- 0 2.0 3.0 48 125
- 0.88 2 3 cbr 210 ------- 0 2.0 3.0 48 125
r 0.88043 2 3 cbr 210 ------- 0 2.0 3.0 45 119
r 0.882 0 1 cbr 500 ------- 0 0.0 1.0 72 115
+ 0.88375 2 3 cbr 210 ------- 0 2.0 3.0 49 126
- 0.88375 2 3 cbr 210 ------- 0 2.0 3.0 49 126
r 0.88418 2 3 cbr 210 ------- 0 2.0 3.0 46 121
+ 0.885 0 1 cbr 500 ------- 0 0.0 1.0 77 127
- 0.885 0 1 cbr 500 ------- 0 0.0 1.0 77 127
r 0.887 0 1 cbr 500 ------- 0 0.0 1.0 73 117
+ 0.8875 2 3 cbr 210 ------- 0 2.0 3.0 50 128
- 0.8875 2 3 cbr 210 ------- 0 2.0 3.0 50 128
r 0.88793 2 3 cbr 210 ------- 0 2.0 3.0 47 123
+ 0.89 0 1 cbr 500 ------- 0 0.0 1.0 78 129
- 0.89 0 1 cbr 500 ------- 0 0.0 1.0 78 129
+ 0.89125 2 3 cbr 210 ------- 0 2.0 3.0 51 130
- 0.89125 2 3 cbr 210 ------- 0 2.0 3.0 51 130
r 0.89168 2 3 cbr 210 ------- 0 2.0 3.0 48 125
r 0.892 0 1 cbr 500 ------- 0 0.0 1.0 74 120
+ 0.895 0 1 cbr 500 ------- 0 0.0 1.0 79 131
- 0.895 0 1 cbr 500 ------- 0 0.0 1.0 79 131
+ 0.895 2 3 cbr 210 ------- 0 2.0 3.0 52 132
- 0.895 2 3 cbr 210 ------- 0 2.0 3.0 52 132
r 0.89543 2 3 cbr 210 ------- 0 2.0 3.0 49 126
r 0.897 0 1 cbr 500 ------- 0 0.0 1.0 75 122
+ 0.89875 2 3 cbr 210 ------- 0 2.0 3.0 53 133
- 0.89875 2 3 cbr 210 ------- 0 2.0 3.0 53 133
r 0.89918 2 3 cbr 210 ------- 0 2.0 3.0 50 128
+ 0.9 0 1 cbr 500 ------- 0 0.0 1.0 80 134
- 0.9 0 1 cbr 500 ------- 0 0.0 1.0 80 134
r 0.902 0 1 cbr 500 ------- 0 0.0 1.0 76 124
+ 0.9025 2 3 cbr 210 ------- 0 2.0 3.0 54 135
- 0.9025 2 3 cbr 210 ------- 0 2.0 3.0 54 135
r 0.90293 2 3 cbr 210 ------- 0 2.0 3.0 51 130
+ 0.905 0 1 cbr 500 ------- 0 0.0 1.0 81 136
- 0.905 0 1 cbr 500 ------- 0 0.0 1.0 81 136
+ 0.90625 2 3 cbr 210 ------- 0 2.0 3.0 55 137
- 0.90625 2 3 cbr 210 ------- 0 2.0 3.0 55 137
r 0.90668 2 3 cbr 210 ------- 0 2.0 3.0 52 132
r 0.907 0 1 cbr 500 ------- 0 0.0 1.0 77 127
+ 0.91 0 1 cbr 500 ------- 0 0.0 1.0 82 138
- 0.91 0 1 cbr 500 ------- 0 0.0 1.0 82 138
+ 0.91 2 3 cbr 210 ------- 0 2.0 3.0 56 139
- 0.91 2 3 cbr 210 ------- 0 2.0 3.0 56 139
r 0.91043 2 3 cbr 210 ------- 0 2.0 3.0 53 133
r 0.912 0 1 cbr 500 ------- 0 0.0 1.0 78 129
+ 0.91375 2 3 cbr 210 ------- 0 2.0 3.0 57 140
- 0.91375 2 3 cbr 210 ------- 0 2.0 3.0 57 140
r 0.91418 2 3 cbr 210 ------- 0 2.0 3.0 54 135
+ 0.915 0 1 cbr 500 ------- 0 0.0 1.0 83 141
- 0.915 0 1 cbr 500 ------- 0 0.0 1.0 83 141
r 0.917 0 1 cbr 500 ------- 0 0.0 1.0 79 131
+ 0.9175 2 3 cbr 210 ------- 0 2.0 3.0 58 142
- 0.9175 2 3 cbr 210 ------- 0 2.0 3.0 58 142
r 0.91793 2 3 cbr 210 ------- 0 2.0 3.0 55 137
+ 0.92 0 1 cbr 500 ------- 0 0.0 1.0 84 143
- 0.92 0 1 cbr 500 ------- 0 0.0 1.0 84 143
+ 0.92125 2 3 cbr 210 ------- 0 2.0 3.0 59 144
- 0.92125 2 3 cbr 210 ------- 0 2.0 3.0 59 144
r 0.92168 2 3 cbr 210 ------- 0 2.0 3.0 56 139
r 0.922 0 1 cbr 500 ------- 0 0.0 1.0 80 134
+ 0.925 0 1 cbr 500 ------- 0 0.0 1.0 85 145
- 0.925 0 1 cbr 500 ------- 0 0.0 1.0 85 145
+ 0.925 2 3 cbr 210 ------- 0 2.0 3.0 60 146
- 0.925 2 3 cbr 210 ------- 0 2.0 3.0 60 146
r 0.92543 2 3 cbr 210 ------- 0 2.0 3.0 57 140
r 0.927 0 1 cbr 500 ------- 0 0.0 1.0 81 136
+ 0.92875 2 3 cbr 210 ------- 0 2.0 3.0 61 147
- 0.92875 2 3 cbr 210 ------- 0 2.0 3.0 61 147
r 0.92918 2 3 cbr 210 ------- 0 2.0 3.0 58 142
+ 0.93 0 1 cbr 500 ------- 0 0.0 1.0 86 148
- 0.93 0 1 cbr 500 ------- 0 0.0 1.0 86 148
r 0.932 0 1 cbr 500 ------- 0 0.0 1.0 82 138
+ 0.9325 2 3 cbr 210 ------- 0 2.0 3.0 62 149
- 0.9325 2 3 cbr 210 ------- 0 2.0 3.0 62 149
r 0.93293 2 3 cbr 210 ------- 0 2.0 3.0 59 144
+ 0.935 0 1 cbr 500 ------- 0 0.0 1.0 87 150
- 0.935 0 1 cbr 500 ------- 0 0.0 1.0 87 150
+ 0.93625 2 3 cbr 210 ------- 0 2.0 3.0 63 151
- 0.93625 2 3 cbr 210 ------- 0 2.0 3.0 63 151
r 0.93668 2 3 cbr 210 ------- 0 2.0 3.0 60 146
r 0.937 0 1 cbr 500 ------- 0 0.0 1.0 83 141
+ 0.94 0 1 cbr 500 ------- 0 0.0 1.0 88 152
- 0.94 0 1 cbr 500 ------- 0 0.0 1.0 88 152
+ 0.94 2 3 cbr 210 ------- 0 2.0 3.0 64 153
- 0.94 2 3 cbr 210 ------- 0 2.0 3.0 64 153
r 0.94043 2 3 cbr 210 ------- 0 2.0 3.0 61 147
r 0.942 0 1 cbr 500 ------- 0 0.0 1.0 84 143
+ 0.94375 2 3 cbr 210 ------- 0 2.0 3.0 65 154
- 0.94375 2 3 cbr 210 ------- 0 2.0 3.0 65 154
r 0.94418 2 3 cbr 210 ------- 0 2.0 3.0 62 149
+ 0.945 0 1 cbr 500 ------- 0 0.0 1.0 89 155
- 0.945 0 1 cbr 500 ------- 0 0.0 1.0 89 155
r 0.947 0 1 cbr 500 ------- 0 0.0 1.0 85 145
+ 0.9475 2 3 cbr 210 ------- 0 2.0 3.0 66 156
- 0.9475 2 3 cbr 210 ------- 0 2.0 3.0 66 156
r 0.94793 2 3 cbr 210 ------- 0 2.0 3.0 63 151
+ 0.95 0 1 cbr 500 ------- 0 0.0 1.0 90 157
- 0.95 0 1 cbr 500 ------- 0 0.0 1.0 90 157
+ 0.95125 2 3 cbr 210 ------- 0 2.0 3.0 67 158
- 0.95125 2 3 cbr 210 ------- 0 2.0 3.0 67 158
r 0.95168 2 3 cbr 210 ------- 0 2.0 3.0 64 153
r 0.952 0 1 cbr 500 ------- 0 0.0 1.0 86 148
+ 0.955 0 1 cbr 500 ------- 0 0.0 1.0 91 159
- 0.955 0 1 cbr 500 ------- 0 0.0 1.0 91 159
+ 0.955 2 3 cbr 210 ------- 0 2.0 3.0 68 160
- 0.955 2 3 cbr 210 ------- 0 2.0 3.0 68 160
r 0.95543 2 3 cbr 210 ------- 0 2.0 3.0 65 154
r 0.957 0 1 cbr 500 ------- 0 0.0 1.0 87 150
+ 0.95875 2 3 cbr 210 ------- 0 2.0 3.0 69 161
- 0.95875 2 3 cbr 210 ------- 0 2.0 3.0 69 161
r 0.95918 2 3 cbr 210 ------- 0 2.0 3.0 66 156
+ 0.96 0 1 cbr 500 ------- 0 0.0 1.0 92 162
- 0.96 0 1 cbr 500 ------- 0 0.0 1.0 92 162
r 0.962 0 1 cbr 500 ------- 0 0.0 1.0 88 152
+ 0.9625 2 3 cbr 210 ------- 0 2.0 3.0 70 163
- 0.9625 2 3 cbr 210 ------- 0 2.0 3.0 70 163
r 0.96293 2 3 cbr 210 ------- 0 2.0 3.0 67 158
+ 0.965 0 1 cbr 500 ------- 0 0.0 1.0 93 164
- 0.965 0 1 cbr 500 ------- 0 0.0 1.0 93 164
+ 0.96625 2 3 cbr 210 ------- 0 2.0 3.0 71 165
- 0.96625 2 3 cbr 210 ------- 0 2.0 3.0 71 165
r 0.96668 2 3 cbr 210 ------- 0 2.0 3.0 68 160
r 0.967 0 1 cbr 500 ------- 0 0.0 1.0 89 155
+ 0.97 0 1 cbr 500 ------- 0 0.0 1.0 94 166
- 0.97 0 1 cbr 500 ------- 0 0.0 1.0 94 166
+ 0.97 2 3 cbr 210 ------- 0 2.0 3.0 72 167
- 0.97 2 3 cbr 210 ------- 0 2.0 3.0 72 167
r 0.97043 2 3 cbr 210 ------- 0 2.0 3.0 69 161
r 0.972 0 1 cbr 500 ------- 0 0.0 1.0 90 157
+ 0.97375 2 3 cbr 210 ------- 0 2.0 3.0 73 168
- 0.97375 2 3 cbr 210 ------- 0 2.0 3.0 73 168
r 0.97418 2 3 cbr 210 ------- 0 2.0 3.0 70 163
+ 0.975 0 1 cbr 500 ------- 0 0.0 1.0 95 169
- 0.975 0 1 cbr 500 ------- 0 0.0 1.0 95 169
r 0.977 0 1 cbr 500 ------- 0 0.0 1.0 91 159
+ 0.9775 2 3 cbr 210 ------- 0 2.0 3.0 74 170
- 0.9775 2 3 cbr 210 ------- 0 2.0 3.0 74 170
r 0.97793 2 3 cbr 210 ------- 0 2.0 3.0 71 165
+ 0.98 0 1 cbr 500 ------- 0 0.0 1.0 96 171
- 0.98 0 1 cbr 500 ------- 0 0.0 1.0 96 171
+ 0.98125 2 3 cbr 210 ------- 0 2.0 3.0 75 172
- 0.98125 2 3 cbr 210 ------- 0 2.0 3.0 75 172
r 0.98168 2 3 cbr 210 ------- 0 2.0 3.0 72 167
r 0.982 0 1 cbr 500 ------- 0 0.0 1.0 92 162
+ 0.985 0 1 cbr 500 ------- 0 0.0 1.0 97 173
- 0.985 0 1 cbr 500 ------- 0 0.0 1.0 97 173
+ 0.985 2 3 cbr 210 ------- 0 2.0 3.0 76 174
- 0.985 2 3 cbr 210 ------- 0 2.0 3.0 76 174
r 0.98543 2 3 cbr 210 ------- 0 2.0 3.0 73 168
r 0.987 0 1 cbr 500 ------- 0 0.0 1.0 93 164
+ 0.98875 2 3 cbr 210 ------- 0 2.0 3.0 77 175
- 0.98875 2 3 cbr 210 ------- 0 2.0 3.0 77 175
r 0.98918 2 3 cbr 210 ------- 0 2.0 3.0 74 170
+ 0.99 0 1 cbr 500 ------- 0 0.0 1.0 98 176
- 0.99 0 1 cbr 500 ------- 0 0.0 1.0 98 176
r 0.992 0 1 cbr 500 ------- 0 0.0 1.0 94 166
+ 0.9925 2 3 cbr 210 ------- 0 2.0 3.0 78 177
- 0.9925 2 3 cbr 210 ------- 0 2.0 3.0 78 177
r 0.99293 2 3 cbr 210 ------- 0 2.0 3.0 75 172
+ 0.995 0 1 cbr 500 ------- 0 0.0 1.0 99 178
- 0.995 0 1 cbr 500 ------- 0 0.0 1.0 99 178
+ 0.99625 2 3 cbr 210 ------- 0 2.0 3.0 79 179
- 0.99625 2 3 cbr 210 ------- 0 2.0 3.0 79 179
r 0.99668 2 3 cbr 210 ------- 0 2.0 3.0 76 174
r 0.997 0 1 cbr 500 ------- 0 0.0 1.0 95 169
+ 1 0 1 cbr 500 ------- 0 0.0 1.0 100 180
- 1 0 1 cbr 500 ------- 0 0.0 1.0 100 180
+ 1 2 3 cbr 210 ------- 0 2.0 3.0 80 181
- 1 2 3 cbr 210 ------- 0 2.0 3.0 80 181
r 1.00043 2 3 cbr 210 ------- 0 2.0 3.0 77 175
r 1.002 0 1 cbr 500 ------- 0 0.0 1.0 96 171
+ 1.00375 2 3 cbr 210 ------- 0 2.0 3.0 81 182
- 1.00375 2 3 cbr 210 ------- 0 2.0 3.0 81 182
r 1.00418 2 3 cbr 210 ------- 0 2.0 3.0 78 177
+ 1.005 0 1 cbr 500 ------- 0 0.0 1.0 101 183
- 1.005 0 1 cbr 500 ------- 0 0.0 1.0 101 183
r 1.007 0 1 cbr 500 ------- 0 0.0 1.0 97 173
+ 1.0075 2 3 cbr 210 ------- 0 2.0 3.0 82 184
- 1.0075 2 3 cbr 210 ------- 0 2.0 3.0 82 184
r 1.00793 2 3 cbr 210 ------- 0 2.0 3.0 79 179
+ 1.01 0 1 cbr 500 ------- 0 0.0 1.0 102 185
- 1.01 0 1 cbr 500 ------- 0 0.0 1.0 102 185
+ 1.01125 2 3 cbr 210 ------- 0 2.0 3.0 83 186
- 1.01125 2 3 cbr 210 ------- 0 2.0 3.0 83 186
r 1.01168 2 3 cbr 210 ------- 0 2.0 3.0 80 181
r 1.012 0 1 cbr 500 ------- 0 0.0 1.0 98 176
+ 1.015 0 1 cbr 500 ------- 0 0.0 1.0 103 187
- 1.015 0 1 cbr 500 ------- 0 0.0 1.0 103 187
+ 1.015 2 3 cbr 210 ------- 0 2.0 3.0 84 188
- 1.015 2 3 cbr 210 ------- 0 2.0 3.0 84 188
r 1.01543 2 3 cbr 210 ------- 0 2.0 3.0 81 182
r 1.017 0 1 cbr 500 ------- 0 0.0 1.0 99 178
+ 1.01875 2 3 cbr 210 ------- 0 2.0 3.0 85 189
- 1.01875 2 3 cbr 210 ------- 0 2.0 3.0 85 189
r 1.01918 2 3 cbr 210 ------- 0 2.0 3.0 82 184
+ 1.02 0 1 cbr 500 ------- 0 0.0 1.0 104 190
- 1.02 0 1 cbr 500 ------- 0 0.0 1.0 104 190
r 1.022 0 1 cbr 500 ------- 0 0.0 1.0 100 180
+ 1.0225 2 3 cbr 210 ------- 0 2.0 3.0 86 191
- 1.0225 2 3 cbr 210 ------- 0 2.0 3.0 86 191
r 1.02293 2 3 cbr 210 ------- 0 2.0 3.0 83 186
+ 1.025 0 1 cbr 500 ------- 0 0.0 1.0 105 192
- 1.025 0 1 cbr 500 ------- 0 0.0 1.0 105 192
+ 1.02625 2 3 cbr 210 ------- 0 2.0 3.0 87 193
- 1.02625 2 3 cbr 210 ------- 0 2.0 3.0 87 193
r 1.02668 2 3 cbr 210 ------- 0 2.0 3.0 84 188
r 1.027 0 1 cbr 500 ------- 0 0.0 1.0 101 183
+ 1.03 0 1 cbr 500 ------- 0 0.0 1.0 106 194
- 1.03 0 1 cbr 500 ------- 0 0.0 1.0 106 194
+ 1.03 2 3 cbr 210 ------- 0 2.0 3.0 88 195
- 1.03 2 3 cbr 210 ------- 0 2.0 3.0 88 195
r 1.03043 2 3 cbr 210 ------- 0 2.0 3.0 85 189
r 1.032 0 1 cbr 500 ------- 0 0.0 1.0 102 185
+ 1.03375 2 3 cbr 210 ------- 0 2.0 3.0 89 196
- 1.03375 2 3 cbr 210 ------- 0 2.0 3.0 89 196
r 1.03418 2 3 cbr 210 ------- 0 2.0 3.0 86 191
+ 1.035 0 1 cbr 500 ------- 0 0.0 1.0 107 197
- 1.035 0 1 cbr 500 ------- 0 0.0 1.0 107 197
r 1.037 0 1 cbr 500 ------- 0 0.0 1.0 103 187
+ 1.0375 2 3 cbr 210 ------- 0 2.0 3.0 90 198
- 1.0375 2 3 cbr 210 ------- 0 2.0 3.0 90 198
r 1.03793 2 3 cbr 210 ------- 0 2.0 3.0 87 193
+ 1.04 0 1 cbr 500 ------- 0 0.0 1.0 108 199
- 1.04 0 1 cbr 500 ------- 0 0.0 1.0 108 199
+ 1.04125 2 3 cbr 210 ------- 0 2.0 3.0 91 200
- 1.04125 2 3 cbr 210 ------- 0 2.0 3.0 91 200
r 1.04168 2 3 cbr 210 ------- 0 2.0 3.0 88 195
r 1.042 0 1 cbr 500 ------- 0 0.0 1.0 104 190
+ 1.045 0 1 cbr 500 ------- 0 0.0 1.0 109 201
- 1.045 0 1 cbr 500 ------- 0 0.0 1.0 109 201
+ 1.045 2 3 cbr 210 ------- 0 2.0 3.0 92 202
- 1.045 2 3 cbr 210 ------- 0 2.0 3.0 92 202
r 1.04543 2 3 cbr 210 ------- 0 2.0 3.0 89 196
r 1.047 0 1 cbr 500 ------- 0 0.0 1.0 105 192
+ 1.04875 2 3 cbr 210 ------- 0 2.0 3.0 93 203
- 1.04875 2 3 cbr 210 ------- 0 2.0 3.0 93 203
r 1.04918 2 3 cbr 210 ------- 0 2.0 3.0 90 198
+ 1.05 0 1 cbr 500 ------- 0 0.0 1.0 110 204
- 1.05 0 1 cbr 500 ------- 0 0.0 1.0 110 204
r 1.052 0 1 cbr 500 ------- 0 0.0 1.0 106 194
+ 1.0525 2 3 cbr 210 ------- 0 2.0 3.0 94 205
- 1.0525 2 3 cbr 210 ------- 0 2.0 3.0 94 205
r 1.05293 2 3 cbr 210 ------- 0 2.0 3.0 91 200
+ 1.055 0 1 cbr 500 ------- 0 0.0 1.0 111 206
- 1.055 0 1 cbr 500 ------- 0 0.0 1.0 111 206
+ 1.05625 2 3 cbr 210 ------- 0 2.0 3.0 95 207
- 1.05625 2 3 cbr 210 ------- 0 2.0 3.0 95 207
r 1.05668 2 3 cbr 210 ------- 0 2.0 3.0 92 202
r 1.057 0 1 cbr 500 ------- 0 0.0 1.0 107 197
+ 1.06 0 1 cbr 500 ------- 0 0.0 1.0 112 208
- 1.06 0 1 cbr 500 ------- 0 0.0 1.0 112 208
+ 1.06 2 3 cbr 210 ------- 0 2.0 3.0 96 209
- 1.06 2 3 cbr 210 ------- 0 2.0 3.0 96 209
r 1.06043 2 3 cbr 210 ------- 0 2.0 3.0 93 203
r 1.062 0 1 cbr 500 ------- 0 0.0 1.0 108 199
+ 1.06375 2 3 cbr 210 ------- 0 2.0 3.0 97 210
- 1.06375 2 3 cbr 210 ------- 0 2.0 3.0 97 210
r 1.06418 2 3 cbr 210 ------- 0 2.0 3.0 94 205
+ 1.065 0 1 cbr 500 ------- 0 0.0 1.0 113 211
- 1.065 0 1 cbr 500 ------- 0 0.0 1.0 113 211
r 1.067 0 1 cbr 500 ------- 0 0.0 1.0 109 201
+ 1.0675 2 3 cbr 210 ------- 0 2.0 3.0 98 212
- 1.0675 2 3 cbr 210 ------- 0 2.0 3.0 98 212
r 1.06793 2 3 cbr 210 ------- 0 2.0 3.0 95 207
+ 1.07 0 1 cbr 500 ------- 0 0.0 1.0 114 213
- 1.07 0 1 cbr 500 ------- 0 0.0 1.0 114 213
+ 1.07125 2 3 cbr 210 ------- 0 2.0 3.0 99 214
- 1.07125 2 3 cbr 210 ------- 0 2.0 3.0 99 214
r 1.07168 2 3 cbr 210 ------- 0 2.0 3.0 96 209
r 1.072 0 1 cbr 500 ------- 0 0.0 1.0 110 204
+ 1.075 0 1 cbr 500 ------- 0 0.0 1.0 115 215
- 1.075 0 1 cbr 500 ------- 0 0.0 1.0 115 215
+ 1.075 2 3 cbr 210 ------- 0 2.0 3.0 100 216
- 1.075 2 3 cbr 210 ------- 0 2.0 3.0 100 216
r 1.07543 2 3 cbr 210 ------- 0 2.0 3.0 97 210
r 1.077 0 1 cbr 500 ------- 0 0.0 1.0 111 206
+ 1.07875 2 3 cbr 210 ------- 0 2.0 3.0 101 217
- 1.07875 2 3 cbr 210 ------- 0 2.0 3.0 101 217
r 1.07918 2 3 cbr 210 ------- 0 2.0 3.0 98 212
+ 1.08 0 1 cbr 500 ------- 0 0.0 1.0 116 218
- 1.08 0 1 cbr 500 ------- 0 0.0 1.0 116 218
r 1.082 0 1 cbr 500 ------- 0 0.0 1.0 112 208
+ 1.0825 2 3 cbr 210 ------- 0 2.0 3.0 102 219
- 1.0825 2 3 cbr 210 ------- 0 2.0 3.0 102 219
r 1.08293 2 3 cbr 210 ------- 0 2.0 3.0 99 214
+ 1.085 0 1 cbr 500 ------- 0 0.0 1.0 117 220
- 1.085 0 1 cbr 500 ------- 0 0.0 1.0 117 220
+ 1.08625 2 3 cbr 210 ------- 0 2.0 3.0 103 221
- 1.08625 2 3 cbr 210 ------- 0 2.0 3.0 103 221
r 1.08668 2 3 cbr 210 ------- 0 2.0 3.0 100 216
r 1.087 0 1 cbr 500 ------- 0 0.0 1.0 113 211
+ 1.09 0 1 cbr 500 ------- 0 0.0 1.0 118 222
- 1.09 0 1 cbr 500 ------- 0 0.0 1.0 118 222
+ 1.09 2 3 cbr 210 ------- 0 2.0 3.0 104 223
- 1.09 2 3 cbr 210 ------- 0 2.0 3.0 104 223
r 1.09043 2 3 cbr 210 ------- 0 2.0 3.0 101 217
r 1.092 0 1 cbr 500 ------- 0 0.0 1.0 114 213
+ 1.09375 2 3 cbr 210 ------- 0 2.0 3.0 105 224
- 1.09375 2 3 cbr 210 ------- 0 2.0 3.0 105 224